+ 0 0 1 cbr 500 ------- 0 0.0 3.0 0 0
- 0 0 1 cbr 500 ------- 0 0.0 3.0 0 0
+ 0.011905 0 1 cbr 500 ------- 0 0.0 3.0 1 1
- 0.011905 0 1 cbr 500 ------- 0 0.0 3.0 1 1
r 0.012667 0 1 cbr 500 ------- 0 0.0 3.0 0 0
+ 0.012667 1 2 cbr 500 ------- 0 0.0 3.0 0 0
- 0.012667 1 2 cbr 500 ------- 0 0.0 3.0 0 0
+ 0.02381 0 1 cbr 500 ------- 0 0.0 3.0 2 2
- 0.02381 0 1 cbr 500 ------- 0 0.0 3.0 2 2
r 0.024571 0 1 cbr 500 ------- 0 0.0 3.0 1 1
+ 0.024571 1 2 cbr 500 ------- 0 0.0 3.0 1 1
- 0.024571 1 2 cbr 500 ------- 0 0.0 3.0 1 1
r 0.025333 1 2 cbr 500 ------- 0 0.0 3.0 0 0
+ 0.025333 2 3 cbr 500 ------- 0 0.0 3.0 0 0
- 0.025333 2 3 cbr 500 ------- 0 0.0 3.0 0 0
+ 0.035714 0 1 cbr 500 ------- 0 0.0 3.0 3 3
- 0.035714 0 1 cbr 500 ------- 0 0.0 3.0 3 3
r 0.036476 0 1 cbr 500 ------- 0 0.0 3.0 2 2
+ 0.036476 1 2 cbr 500 ------- 0 0.0 3.0 2 2
- 0.036476 1 2 cbr 500 ------- 0 0.0 3.0 2 2
r 0.037238 1 2 cbr 500 ------- 0 0.0 3.0 1 1
+ 0.037238 2 3 cbr 500 ------- 0 0.0 3.0 1 1
- 0.037238 2 3 cbr 500 ------- 0 0.0 3.0 1 1
r 0.038 2 3 cbr 500 ------- 0 0.0 3.0 0 0
+ 0.047619 0 1 cbr 500 ------- 0 0.0 3.0 4 4
- 0.047619 0 1 cbr 500 ------- 0 0.0 3.0 4 4
r 0.048381 0 1 cbr 500 ------- 0 0.0 3.0 3 3
+ 0.048381 1 2 cbr 500 ------- 0 0.0 3.0 3 3
- 0.048381 1 2 cbr 500 ------- 0 0.0 3.0 3 3
r 0.049143 1 2 cbr 500 ------- 0 0.0 3.0 2 2
+ 0.049143 2 3 cbr 500 ------- 0 0.0 3.0 2 2
- 0.049143 2 3 cbr 500 ------- 0 0.0 3.0 2 2
r 0.049905 2 3 cbr 500 ------- 0 0.0 3.0 1 1
+ 0.059524 0 1 cbr 500 ------- 0 0.0 3.0 5 5
- 0.059524 0 1 cbr 500 ------- 0 0.0 3.0 5 5
r 0.060286 0 1 cbr 500 ------- 0 0.0 3.0 4 4
+ 0.060286 1 2 cbr 500 ------- 0 0.0 3.0 4 4
- 0.060286 1 2 cbr 500 ------- 0 0.0 3.0 4 4
r 0.061048 1 2 cbr 500 ------- 0 0.0 3.0 3 3
+ 0.061048 2 3 cbr 500 ------- 0 0.0 3.0 3 3
- 0.061048 2 3 cbr 500 ------- 0 0.0 3.0 3 3
r 0.06181 2 3 cbr 500 ------- 0 0.0 3.0 2 2
+ 0.071429 0 1 cbr 500 ------- 0 0.0 3.0 6 6
- 0.071429 0 1 cbr 500 ------- 0 0.0 3.0 6 6
r 0.07219 0 1 cbr 500 ------- 0 0.0 3.0 5 5
+ 0.07219 1 2 cbr 500 ------- 0 0.0 3.0 5 5
- 0.07219 1 2 cbr 500 ------- 0 0.0 3.0 5 5
r 0.072952 1 2 cbr 500 ------- 0 0.0 3.0 4 4
+ 0.072952 2 3 cbr 500 ------- 0 0.0 3.0 4 4
- 0.072952 2 3 cbr 500 ------- 0 0.0 3.0 4 4
r 0.073714 2 3 cbr 500 ------- 0 0.0 3.0 3 3
+ 0.083333 0 1 cbr 500 ------- 0 0.0 3.0 7 7
- 0.083333 0 1 cbr 500 ------- 0 0.0 3.0 7 7
r 0.084095 0 1 cbr 500 ------- 0 0.0 3.0 6 6
+ 0.084095 1 2 cbr 500 ------- 0 0.0 3.0 6 6
- 0.084095 1 2 cbr 500 ------- 0 0.0 3.0 6 6
r 0.084857 1 2 cbr 500 ------- 0 0.0 3.0 5 5
+ 0.084857 2 3 cbr 500 ------- 0 0.0 3.0 5 5
- 0.084857 2 3 cbr 500 ------- 0 0.0 3.0 5 5
r 0.085619 2 3 cbr 500 ------- 0 0.0 3.0 4 4
+ 0.095238 0 1 cbr 500 ------- 0 0.0 3.0 8 8
- 0.095238 0 1 cbr 500 ------- 0 0.0 3.0 8 8
r 0.096 0 1 cbr 500 ------- 0 0.0 3.0 7 7
+ 0.096 1 2 cbr 500 ------- 0 0.0 3.0 7 7
- 0.096 1 2 cbr 500 ------- 0 0.0 3.0 7 7
r 0.096762 1 2 cbr 500 ------- 0 0.0 3.0 6 6
+ 0.096762 2 3 cbr 500 ------- 0 0.0 3.0 6 6
- 0.096762 2 3 cbr 500 ------- 0 0.0 3.0 6 6
r 0.097524 2 3 cbr 500 ------- 0 0.0 3.0 5 5
+ 0.107143 0 1 cbr 500 ------- 0 0.0 3.0 9 9
- 0.107143 0 1 cbr 500 ------- 0 0.0 3.0 9 9
r 0.107905 0 1 cbr 500 ------- 0 0.0 3.0 8 8
+ 0.107905 1 2 cbr 500 ------- 0 0.0 3.0 8 8
- 0.107905 1 2 cbr 500 ------- 0 0.0 3.0 8 8
r 0.108667 1 2 cbr 500 ------- 0 0.0 3.0 7 7
+ 0.108667 2 3 cbr 500 ------- 0 0.0 3.0 7 7
- 0.108667 2 3 cbr 500 ------- 0 0.0 3.0 7 7
r 0.109429 2 3 cbr 500 ------- 0 0.0 3.0 6 6
+ 0.119048 0 1 cbr 500 ------- 0 0.0 3.0 10 10
- 0.119048 0 1 cbr 500 ------- 0 0.0 3.0 10 10
r 0.11981 0 1 cbr 500 ------- 0 0.0 3.0 9 9
+ 0.11981 1 2 cbr 500 ------- 0 0.0 3.0 9 9
- 0.11981 1 2 cbr 500 ------- 0 0.0 3.0 9 9
r 0.120571 1 2 cbr 500 ------- 0 0.0 3.0 8 8
+ 0.120571 2 3 cbr 500 ------- 0 0.0 3.0 8 8
- 0.120571 2 3 cbr 500 ------- 0 0.0 3.0 8 8
r 0.121333 2 3 cbr 500 ------- 0 0.0 3.0 7 7
+ 0.130952 0 1 cbr 500 ------- 0 0.0 3.0 11 11
- 0.130952 0 1 cbr 500 ------- 0 0.0 3.0 11 11
r 0.131714 0 1 cbr 500 ------- 0 0.0 3.0 10 10
+ 0.131714 1 2 cbr 500 ------- 0 0.0 3.0 10 10
- 0.131714 1 2 cbr 500 ------- 0 0.0 3.0 10 10
r 0.132476 1 2 cbr 500 ------- 0 0.0 3.0 9 9
+ 0.132476 2 3 cbr 500 ------- 0 0.0 3.0 9 9
- 0.132476 2 3 cbr 500 ------- 0 0.0 3.0 9 9
r 0.133238 2 3 cbr 500 ------- 0 0.0 3.0 8 8
+ 0.142857 0 1 cbr 500 ------- 0 0.0 3.0 12 12
- 0.142857 0 1 cbr 500 ------- 0 0.0 3.0 12 12
r 0.143619 0 1 cbr 500 ------- 0 0.0 3.0 11 11
+ 0.143619 1 2 cbr 500 ------- 0 0.0 3.0 11 11
- 0.143619 1 2 cbr 500 ------- 0 0.0 3.0 11 11
r 0.144381 1 2 cbr 500 ------- 0 0.0 3.0 10 10
+ 0.144381 2 3 cbr 500 ------- 0 0.0 3.0 10 10
- 0.144381 2 3 cbr 500 ------- 0 0.0 3.0 10 10
r 0.145143 2 3 cbr 500 ------- 0 0.0 3.0 9 9
+ 0.154762 0 1 cbr 500 ------- 0 0.0 3.0 13 13
- 0.154762 0 1 cbr 500 ------- 0 0.0 3.0 13 13
r 0.155524 0 1 cbr 500 ------- 0 0.0 3.0 12 12
+ 0.155524 1 2 cbr 500 ------- 0 0.0 3.0 12 12
- 0.155524 1 2 cbr 500 ------- 0 0.0 3.0 12 12
r 0.156286 1 2 cbr 500 ------- 0 0.0 3.0 11 11
+ 0.156286 2 3 cbr 500 ------- 0 0.0 3.0 11 11
- 0.156286 2 3 cbr 500 ------- 0 0.0 3.0 11 11
r 0.157048 2 3 cbr 500 ------- 0 0.0 3.0 10 10
+ 0.166667 0 1 cbr 500 ------- 0 0.0 3.0 14 14
- 0.166667 0 1 cbr 500 ------- 0 0.0 3.0 14 14
r 0.167429 0 1 cbr 500 ------- 0 0.0 3.0 13 13
+ 0.167429 1 2 cbr 500 ------- 0 0.0 3.0 13 13
- 0.167429 1 2 cbr 500 ------- 0 0.0 3.0 13 13
r 0.16819 1 2 cbr 500 ------- 0 0.0 3.0 12 12
+ 0.16819 2 3 cbr 500 ------- 0 0.0 3.0 12 12
- 0.16819 2 3 cbr 500 ------- 0 0.0 3.0 12 12
r 0.168952 2 3 cbr 500 ------- 0 0.0 3.0 11 11
+ 0.178571 0 1 cbr 500 ------- 0 0.0 3.0 15 15
- 0.178571 0 1 cbr 500 ------- 0 0.0 3.0 15 15
r 0.179333 0 1 cbr 500 ------- 0 0.0 3.0 14 14
+ 0.179333 1 2 cbr 500 ------- 0 0.0 3.0 14 14
- 0.179333 1 2 cbr 500 ------- 0 0.0 3.0 14 14
r 0.180095 1 2 cbr 500 ------- 0 0.0 3.0 13 13
+ 0.180095 2 3 cbr 500 ------- 0 0.0 3.0 13 13
- 0.180095 2 3 cbr 500 ------- 0 0.0 3.0 13 13
r 0.180857 2 3 cbr 500 ------- 0 0.0 3.0 12 12
+ 0.190476 0 1 cbr 500 ------- 0 0.0 3.0 16 16
- 0.190476 0 1 cbr 500 ------- 0 0.0 3.0 16 16
r 0.191238 0 1 cbr 500 ------- 0 0.0 3.0 15 15
+ 0.191238 1 2 cbr 500 ------- 0 0.0 3.0 15 15
- 0.191238 1 2 cbr 500 ------- 0 0.0 3.0 15 15
r 0.192 1 2 cbr 500 ------- 0 0.0 3.0 14 14
+ 0.192 2 3 cbr 500 ------- 0 0.0 3.0 14 14
- 0.192 2 3 cbr 500 ------- 0 0.0 3.0 14 14
r 0.192762 2 3 cbr 500 ------- 0 0.0 3.0 13 13
+ 0.202381 0 1 cbr 500 ------- 0 0.0 3.0 17 17
- 0.202381 0 1 cbr 500 ------- 0 0.0 3.0 17 17
r 0.203143 0 1 cbr 500 ------- 0 0.0 3.0 16 16
+ 0.203143 1 2 cbr 500 ------- 0 0.0 3.0 16 16
- 0.203143 1 2 cbr 500 ------- 0 0.0 3.0 16 16
r 0.203905 1 2 cbr 500 ------- 0 0.0 3.0 15 15
+ 0.203905 2 3 cbr 500 ------- 0 0.0 3.0 15 15
- 0.203905 2 3 cbr 500 ------- 0 0.0 3.0 15 15
r 0.204667 2 3 cbr 500 ------- 0 0.0 3.0 14 14
+ 0.214286 0 1 cbr 500 ------- 0 0.0 3.0 18 18
- 0.214286 0 1 cbr 500 ------- 0 0.0 3.0 18 18
r 0.215048 0 1 cbr 500 ------- 0 0.0 3.0 17 17
+ 0.215048 1 2 cbr 500 ------- 0 0.0 3.0 17 17
- 0.215048 1 2 cbr 500 ------- 0 0.0 3.0 17 17
r 0.21581 1 2 cbr 500 ------- 0 0.0 3.0 16 16
+ 0.21581 2 3 cbr 500 ------- 0 0.0 3.0 16 16
- 0.21581 2 3 cbr 500 ------- 0 0.0 3.0 16 16
r 0.216571 2 3 cbr 500 ------- 0 0.0 3.0 15 15
+ 0.22619 0 1 cbr 500 ------- 0 0.0 3.0 19 19
- 0.22619 0 1 cbr 500 ------- 0 0.0 3.0 19 19
r 0.226952 0 1 cbr 500 ------- 0 0.0 3.0 18 18
+ 0.226952 1 2 cbr 500 ------- 0 0.0 3.0 18 18
- 0.226952 1 2 cbr 500 ------- 0 0.0 3.0 18 18
r 0.227714 1 2 cbr 500 ------- 0 0.0 3.0 17 17
+ 0.227714 2 3 cbr 500 ------- 0 0.0 3.0 17 17
- 0.227714 2 3 cbr 500 ------- 0 0.0 3.0 17 17
r 0.228476 2 3 cbr 500 ------- 0 0.0 3.0 16 16
+ 0.238095 0 1 cbr 500 ------- 0 0.0 3.0 20 20
- 0.238095 0 1 cbr 500 ------- 0 0.0 3.0 20 20
r 0.238857 0 1 cbr 500 ------- 0 0.0 3.0 19 19
+ 0.238857 1 2 cbr 500 ------- 0 0.0 3.0 19 19
- 0.238857 1 2 cbr 500 ------- 0 0.0 3.0 19 19
r 0.239619 1 2 cbr 500 ------- 0 0.0 3.0 18 18
+ 0.239619 2 3 cbr 500 ------- 0 0.0 3.0 18 18
- 0.239619 2 3 cbr 500 ------- 0 0.0 3.0 18 18
r 0.240381 2 3 cbr 500 ------- 0 0.0 3.0 17 17
+ 0.25 0 1 cbr 500 ------- 0 0.0 3.0 21 21
- 0.25 0 1 cbr 500 ------- 0 0.0 3.0 21 21
r 0.250762 0 1 cbr 500 ------- 0 0.0 3.0 20 20
+ 0.250762 1 2 cbr 500 ------- 0 0.0 3.0 20 20
- 0.250762 1 2 cbr 500 ------- 0 0.0 3.0 20 20
r 0.251524 1 2 cbr 500 ------- 0 0.0 3.0 19 19
+ 0.251524 2 3 cbr 500 ------- 0 0.0 3.0 19 19
- 0.251524 2 3 cbr 500 ------- 0 0.0 3.0 19 19
r 0.252286 2 3 cbr 500 ------- 0 0.0 3.0 18 18
+ 0.261905 0 1 cbr 500 ------- 0 0.0 3.0 22 22
- 0.261905 0 1 cbr 500 ------- 0 0.0 3.0 22 22
r 0.262667 0 1 cbr 500 ------- 0 0.0 3.0 21 21
+ 0.262667 1 2 cbr 500 ------- 0 0.0 3.0 21 21
- 0.262667 1 2 cbr 500 ------- 0 0.0 3.0 21 21
r 0.263429 1 2 cbr 500 ------- 0 0.0 3.0 20 20
+ 0.263429 2 3 cbr 500 ------- 0 0.0 3.0 20 20
- 0.263429 2 3 cbr 500 ------- 0 0.0 3.0 20 20
r 0.26419 2 3 cbr 500 ------- 0 0.0 3.0 19 19
+ 0.27381 0 1 cbr 500 ------- 0 0.0 3.0 23 23
- 0.27381 0 1 cbr 500 ------- 0 0.0 3.0 23 23
r 0.274571 0 1 cbr 500 ------- 0 0.0 3.0 22 22
+ 0.274571 1 2 cbr 500 ------- 0 0.0 3.0 22 22
- 0.274571 1 2 cbr 500 ------- 0 0.0 3.0 22 22
r 0.275333 1 2 cbr 500 ------- 0 0.0 3.0 21 21
+ 0.275333 2 3 cbr 500 ------- 0 0.0 3.0 21 21
- 0.275333 2 3 cbr 500 ------- 0 0.0 3.0 21 21
r 0.276095 2 3 cbr 500 ------- 0 0.0 3.0 20 20
+ 0.285714 0 1 cbr 500 ------- 0 0.0 3.0 24 24
- 0.285714 0 1 cbr 500 ------- 0 0.0 3.0 24 24
r 0.286476 0 1 cbr 500 ------- 0 0.0 3.0 23 23
+ 0.286476 1 2 cbr 500 ------- 0 0.0 3.0 23 23
- 0.286476 1 2 cbr 500 ------- 0 0.0 3.0 23 23
r 0.287238 1 2 cbr 500 ------- 0 0.0 3.0 22 22
+ 0.287238 2 3 cbr 500 ------- 0 0.0 3.0 22 22
- 0.287238 2 3 cbr 500 ------- 0 0.0 3.0 22 22
r 0.288 2 3 cbr 500 ------- 0 0.0 3.0 21 21
+ 0.297619 0 1 cbr 500 ------- 0 0.0 3.0 25 25
- 0.297619 0 1 cbr 500 ------- 0 0.0 3.0 25 25
r 0.298381 0 1 cbr 500 ------- 0 0.0 3.0 24 24
+ 0.298381 1 2 cbr 500 ------- 0 0.0 3.0 24 24
- 0.298381 1 2 cbr 500 ------- 0 0.0 3.0 24 24
r 0.299143 1 2 cbr 500 ------- 0 0.0 3.0 23 23
+ 0.299143 2 3 cbr 500 ------- 0 0.0 3.0 23 23
- 0.299143 2 3 cbr 500 ------- 0 0.0 3.0 23 23
r 0.299905 2 3 cbr 500 ------- 0 0.0 3.0 22 22
+ 0.309524 0 1 cbr 500 ------- 0 0.0 3.0 26 26
- 0.309524 0 1 cbr 500 ------- 0 0.0 3.0 26 26
r 0.310286 0 1 cbr 500 ------- 0 0.0 3.0 25 25
+ 0.310286 1 2 cbr 500 ------- 0 0.0 3.0 25 25
- 0.310286 1 2 cbr 500 ------- 0 0.0 3.0 25 25
r 0.311048 1 2 cbr 500 ------- 0 0.0 3.0 24 24
+ 0.311048 2 3 cbr 500 ------- 0 0.0 3.0 24 24
- 0.311048 2 3 cbr 500 ------- 0 0.0 3.0 24 24
r 0.31181 2 3 cbr 500 ------- 0 0.0 3.0 23 23
+ 0.321429 0 1 cbr 500 ------- 0 0.0 3.0 27 27
- 0.321429 0 1 cbr 500 ------- 0 0.0 3.0 27 27
r 0.32219 0 1 cbr 500 ------- 0 0.0 3.0 26 26
+ 0.32219 1 2 cbr 500 ------- 0 0.0 3.0 26 26
- 0.32219 1 2 cbr 500 ------- 0 0.0 3.0 26 26
r 0.322952 1 2 cbr 500 ------- 0 0.0 3.0 25 25
+ 0.322952 2 3 cbr 500 ------- 0 0.0 3.0 25 25
- 0.322952 2 3 cbr 500 ------- 0 0.0 3.0 25 25
r 0.323714 2 3 cbr 500 ------- 0 0.0 3.0 24 24
+ 0.333333 0 1 cbr 500 ------- 0 0.0 3.0 28 28
- 0.333333 0 1 cbr 500 ------- 0 0.0 3.0 28 28
r 0.334095 0 1 cbr 500 ------- 0 0.0 3.0 27 27
+ 0.334095 1 2 cbr 500 ------- 0 0.0 3.0 27 27
- 0.334095 1 2 cbr 500 ------- 0 0.0 3.0 27 27
r 0.334857 1 2 cbr 500 ------- 0 0.0 3.0 26 26
+ 0.334857 2 3 cbr 500 ------- 0 0.0 3.0 26 26
- 0.334857 2 3 cbr 500 ------- 0 0.0 3.0 26 26
r 0.335619 2 3 cbr 500 ------- 0 0.0 3.0 25 25
+ 0.345238 0 1 cbr 500 ------- 0 0.0 3.0 29 29
- 0.345238 0 1 cbr 500 ------- 0 0.0 3.0 29 29
r 0.346 0 1 cbr 500 ------- 0 0.0 3.0 28 28
+ 0.346 1 2 cbr 500 ------- 0 0.0 3.0 28 28
- 0.346 1 2 cbr 500 ------- 0 0.0 3.0 28 28
r 0.346762 1 2 cbr 500 ------- 0 0.0 3.0 27 27
+ 0.346762 2 3 cbr 500 ------- 0 0.0 3.0 27 27
- 0.346762 2 3 cbr 500 ------- 0 0.0 3.0 27 27
r 0.347524 2 3 cbr 500 ------- 0 0.0 3.0 26 26
+ 0.357143 0 1 cbr 500 ------- 0 0.0 3.0 30 30
- 0.357143 0 1 cbr 500 ------- 0 0.0 3.0 30 30
r 0.357905 0 1 cbr 500 ------- 0 0.0 3.0 29 29
+ 0.357905 1 2 cbr 500 ------- 0 0.0 3.0 29 29
- 0.357905 1 2 cbr 500 ------- 0 0.0 3.0 29 29
r 0.358667 1 2 cbr 500 ------- 0 0.0 3.0 28 28
+ 0.358667 2 3 cbr 500 ------- 0 0.0 3.0 28 28
- 0.358667 2 3 cbr 500 ------- 0 0.0 3.0 28 28
r 0.359429 2 3 cbr 500 ------- 0 0.0 3.0 27 27
+ 0.369048 0 1 cbr 500 ------- 0 0.0 3.0 31 31
- 0.369048 0 1 cbr 500 ------- 0 0.0 3.0 31 31
r 0.36981 0 1 cbr 500 ------- 0 0.0 3.0 30 30
+ 0.36981 1 2 cbr 500 ------- 0 0.0 3.0 30 30
- 0.36981 1 2 cbr 500 ------- 0 0.0 3.0 30 30
r 0.370571 1 2 cbr 500 ------- 0 0.0 3.0 29 29
+ 0.370571 2 3 cbr 500 ------- 0 0.0 3.0 29 29
- 0.370571 2 3 cbr 500 ------- 0 0.0 3.0 29 29
r 0.371333 2 3 cbr 500 ------- 0 0.0 3.0 28 28
+ 0.380952 0 1 cbr 500 ------- 0 0.0 3.0 32 32
- 0.380952 0 1 cbr 500 ------- 0 0.0 3.0 32 32
r 0.381714 0 1 cbr 500 ------- 0 0.0 3.0 31 31
+ 0.381714 1 2 cbr 500 ------- 0 0.0 3.0 31 31
- 0.381714 1 2 cbr 500 ------- 0 0.0 3.0 31 31
r 0.382476 1 2 cbr 500 ------- 0 0.0 3.0 30 30
+ 0.382476 2 3 cbr 500 ------- 0 0.0 3.0 30 30
- 0.382476 2 3 cbr 500 ------- 0 0.0 3.0 30 30
r 0.383238 2 3 cbr 500 ------- 0 0.0 3.0 29 29
+ 0.392857 0 1 cbr 500 ------- 0 0.0 3.0 33 33
- 0.392857 0 1 cbr 500 ------- 0 0.0 3.0 33 33
r 0.393619 0 1 cbr 500 ------- 0 0.0 3.0 32 32
+ 0.393619 1 2 cbr 500 ------- 0 0.0 3.0 32 32
- 0.393619 1 2 cbr 500 ------- 0 0.0 3.0 32 32
r 0.394381 1 2 cbr 500 ------- 0 0.0 3.0 31 31
+ 0.394381 2 3 cbr 500 ------- 0 0.0 3.0 31 31
- 0.394381 2 3 cbr 500 ------- 0 0.0 3.0 31 31
r 0.395143 2 3 cbr 500 ------- 0 0.0 3.0 30 30
+ 0.404762 0 1 cbr 500 ------- 0 0.0 3.0 34 34
- 0.404762 0 1 cbr 500 ------- 0 0.0 3.0 34 34
r 0.405524 0 1 cbr 500 ------- 0 0.0 3.0 33 33
+ 0.405524 1 2 cbr 500 ------- 0 0.0 3.0 33 33
- 0.405524 1 2 cbr 500 ------- 0 0.0 3.0 33 33
r 0.406286 1 2 cbr 500 ------- 0 0.0 3.0 32 32
+ 0.406286 2 3 cbr 500 ------- 0 0.0 3.0 32 32
- 0.406286 2 3 cbr 500 ------- 0 0.0 3.0 32 32
r 0.407048 2 3 cbr 500 ------- 0 0.0 3.0 31 31
+ 0.416667 0 1 cbr 500 ------- 0 0.0 3.0 35 35
- 0.416667 0 1 cbr 500 ------- 0 0.0 3.0 35 35
r 0.417429 0 1 cbr 500 ------- 0 0.0 3.0 34 34
+ 0.417429 1 2 cbr 500 ------- 0 0.0 3.0 34 34
- 0.417429 1 2 cbr 500 ------- 0 0.0 3.0 34 34
r 0.41819 1 2 cbr 500 ------- 0 0.0 3.0 33 33
+ 0.41819 2 3 cbr 500 ------- 0 0.0 3.0 33 33
- 0.41819 2 3 cbr 500 ------- 0 0.0 3.0 33 33
r 0.418952 2 3 cbr 500 ------- 0 0.0 3.0 32 32
+ 0.428571 0 1 cbr 500 ------- 0 0.0 3.0 36 36
- 0.428571 0 1 cbr 500 ------- 0 0.0 3.0 36 36
r 0.429333 0 1 cbr 500 ------- 0 0.0 3.0 35 35
+ 0.429333 1 2 cbr 500 ------- 0 0.0 3.0 35 35
- 0.429333 1 2 cbr 500 ------- 0 0.0 3.0 35 35
r 0.430095 1 2 cbr 500 ------- 0 0.0 3.0 34 34
+ 0.430095 2 3 cbr 500 ------- 0 0.0 3.0 34 34
- 0.430095 2 3 cbr 500 ------- 0 0.0 3.0 34 34
r 0.430857 2 3 cbr 500 ------- 0 0.0 3.0 33 33
+ 0.440476 0 1 cbr 500 ------- 0 0.0 3.0 37 37
- 0.440476 0 1 cbr 500 ------- 0 0.0 3.0 37 37
r 0.441238 0 1 cbr 500 ------- 0 0.0 3.0 36 36
+ 0.441238 1 2 cbr 500 ------- 0 0.0 3.0 36 36
- 0.441238 1 2 cbr 500 ------- 0 0.0 3.0 36 36
r 0.442 1 2 cbr 500 ------- 0 0.0 3.0 35 35
+ 0.442 2 3 cbr 500 ------- 0 0.0 3.0 35 35
- 0.442 2 3 cbr 500 ------- 0 0.0 3.0 35 35
r 0.442762 2 3 cbr 500 ------- 0 0.0 3.0 34 34
+ 0.452381 0 1 cbr 500 ------- 0 0.0 3.0 38 38
- 0.452381 0 1 cbr 500 ------- 0 0.0 3.0 38 38
r 0.453143 0 1 cbr 500 ------- 0 0.0 3.0 37 37
+ 0.453143 1 2 cbr 500 ------- 0 0.0 3.0 37 37
- 0.453143 1 2 cbr 500 ------- 0 0.0 3.0 37 37
r 0.453905 1 2 cbr 500 ------- 0 0.0 3.0 36 36
+ 0.453905 2 3 cbr 500 ------- 0 0.0 3.0 36 36
- 0.453905 2 3 cbr 500 ------- 0 0.0 3.0 36 36
r 0.454667 2 3 cbr 500 ------- 0 0.0 3.0 35 35
+ 0.464286 0 1 cbr 500 ------- 0 0.0 3.0 39 39
- 0.464286 0 1 cbr 500 ------- 0 0.0 3.0 39 39
r 0.465048 0 1 cbr 500 ------- 0 0.0 3.0 38 38
+ 0.465048 1 2 cbr 500 ------- 0 0.0 3.0 38 38
- 0.465048 1 2 cbr 500 ------- 0 0.0 3.0 38 38
r 0.46581 1 2 cbr 500 ------- 0 0.0 3.0 37 37
+ 0.46581 2 3 cbr 500 ------- 0 0.0 3.0 37 37
- 0.46581 2 3 cbr 500 ------- 0 0.0 3.0 37 37
r 0.466571 2 3 cbr 500 ------- 0 0.0 3.0 36 36
+ 0.47619 0 1 cbr 500 ------- 0 0.0 3.0 40 40
- 0.47619 0 1 cbr 500 ------- 0 0.0 3.0 40 40
r 0.476952 0 1 cbr 500 ------- 0 0.0 3.0 39 39
+ 0.476952 1 2 cbr 500 ------- 0 0.0 3.0 39 39
- 0.476952 1 2 cbr 500 ------- 0 0.0 3.0 39 39
r 0.477714 1 2 cbr 500 ------- 0 0.0 3.0 38 38
+ 0.477714 2 3 cbr 500 ------- 0 0.0 3.0 38 38
- 0.477714 2 3 cbr 500 ------- 0 0.0 3.0 38 38
r 0.478476 2 3 cbr 500 ------- 0 0.0 3.0 37 37
+ 0.488095 0 1 cbr 500 ------- 0 0.0 3.0 41 41
- 0.488095 0 1 cbr 500 ------- 0 0.0 3.0 41 41
r 0.488857 0 1 cbr 500 ------- 0 0.0 3.0 40 40
+ 0.488857 1 2 cbr 500 ------- 0 0.0 3.0 40 40
- 0.488857 1 2 cbr 500 ------- 0 0.0 3.0 40 40
r 0.489619 1 2 cbr 500 ------- 0 0.0 3.0 39 39
+ 0.489619 2 3 cbr 500 ------- 0 0.0 3.0 39 39
- 0.489619 2 3 cbr 500 ------- 0 0.0 3.0 39 39
r 0.490381 2 3 cbr 500 ------- 0 0.0 3.0 38 38
+ 0.5 0 1 cbr 500 ------- 0 0.0 3.0 42 42
- 0.5 0 1 cbr 500 ------- 0 0.0 3.0 42 42
r 0.500762 0 1 cbr 500 ------- 0 0.0 3.0 41 41
+ 0.500762 1 2 cbr 500 ------- 0 0.0 3.0 41 41
- 0.500762 1 2 cbr 500 ------- 0 0.0 3.0 41 41
r 0.501524 1 2 cbr 500 ------- 0 0.0 3.0 40 40
+ 0.501524 2 3 cbr 500 ------- 0 0.0 3.0 40 40
- 0.501524 2 3 cbr 500 ------- 0 0.0 3.0 40 40
r 0.502286 2 3 cbr 500 ------- 0 0.0 3.0 39 39
+ 0.511905 0 1 cbr 500 ------- 0 0.0 3.0 43 43
- 0.511905 0 1 cbr 500 ------- 0 0.0 3.0 43 43
r 0.512667 0 1 cbr 500 ------- 0 0.0 3.0 42 42
+ 0.512667 1 2 cbr 500 ------- 0 0.0 3.0 42 42
- 0.512667 1 2 cbr 500 ------- 0 0.0 3.0 42 42
r 0.513429 1 2 cbr 500 ------- 0 0.0 3.0 41 41
+ 0.513429 2 3 cbr 500 ------- 0 0.0 3.0 41 41
- 0.513429 2 3 cbr 500 ------- 0 0.0 3.0 41 41
r 0.51419 2 3 cbr 500 ------- 0 0.0 3.0 40 40
+ 0.52381 0 1 cbr 500 ------- 0 0.0 3.0 44 44
- 0.52381 0 1 cbr 500 ------- 0 0.0 3.0 44 44
r 0.524571 0 1 cbr 500 ------- 0 0.0 3.0 43 43
+ 0.524571 1 2 cbr 500 ------- 0 0.0 3.0 43 43
- 0.524571 1 2 cbr 500 ------- 0 0.0 3.0 43 43
r 0.525333 1 2 cbr 500 ------- 0 0.0 3.0 42 42
+ 0.525333 2 3 cbr 500 ------- 0 0.0 3.0 42 42
- 0.525333 2 3 cbr 500 ------- 0 0.0 3.0 42 42
r 0.526095 2 3 cbr 500 ------- 0 0.0 3.0 41 41
+ 0.535714 0 1 cbr 500 ------- 0 0.0 3.0 45 45
- 0.535714 0 1 cbr 500 ------- 0 0.0 3.0 45 45
r 0.536476 0 1 cbr 500 ------- 0 0.0 3.0 44 44
+ 0.536476 1 2 cbr 500 ------- 0 0.0 3.0 44 44
- 0.536476 1 2 cbr 500 ------- 0 0.0 3.0 44 44
r 0.537238 1 2 cbr 500 ------- 0 0.0 3.0 43 43
+ 0.537238 2 3 cbr 500 ------- 0 0.0 3.0 43 43
- 0.537238 2 3 cbr 500 ------- 0 0.0 3.0 43 43
r 0.538 2 3 cbr 500 ------- 0 0.0 3.0 42 42
+ 0.547619 0 1 cbr 500 ------- 0 0.0 3.0 46 46
- 0.547619 0 1 cbr 500 ------- 0 0.0 3.0 46 46
r 0.548381 0 1 cbr 500 ------- 0 0.0 3.0 45 45
+ 0.548381 1 2 cbr 500 ------- 0 0.0 3.0 45 45
- 0.548381 1 2 cbr 500 ------- 0 0.0 3.0 45 45
r 0.549143 1 2 cbr 500 ------- 0 0.0 3.0 44 44
+ 0.549143 2 3 cbr 500 ------- 0 0.0 3.0 44 44
- 0.549143 2 3 cbr 500 ------- 0 0.0 3.0 44 44
r 0.549905 2 3 cbr 500 ------- 0 0.0 3.0 43 43
+ 0.559524 0 1 cbr 500 ------- 0 0.0 3.0 47 47
- 0.559524 0 1 cbr 500 ------- 0 0.0 3.0 47 47
r 0.560286 0 1 cbr 500 ------- 0 0.0 3.0 46 46
+ 0.560286 1 2 cbr 500 ------- 0 0.0 3.0 46 46
- 0.560286 1 2 cbr 500 ------- 0 0.0 3.0 46 46
r 0.561048 1 2 cbr 500 ------- 0 0.0 3.0 45 45
+ 0.561048 2 3 cbr 500 ------- 0 0.0 3.0 45 45
- 0.561048 2 3 cbr 500 ------- 0 0.0 3.0 45 45
r 0.56181 2 3 cbr 500 ------- 0 0.0 3.0 44 44
+ 0.571429 0 1 cbr 500 ------- 0 0.0 3.0 48 48
- 0.571429 0 1 cbr 500 ------- 0 0.0 3.0 48 48
r 0.57219 0 1 cbr 500 ------- 0 0.0 3.0 47 47
+ 0.57219 1 2 cbr 500 ------- 0 0.0 3.0 47 47
- 0.57219 1 2 cbr 500 ------- 0 0.0 3.0 47 47
r 0.572952 1 2 cbr 500 ------- 0 0.0 3.0 46 46
+ 0.572952 2 3 cbr 500 ------- 0 0.0 3.0 46 46
- 0.572952 2 3 cbr 500 ------- 0 0.0 3.0 46 46
r 0.573714 2 3 cbr 500 ------- 0 0.0 3.0 45 45
+ 0.583333 0 1 cbr 500 ------- 0 0.0 3.0 49 49
- 0.583333 0 1 cbr 500 ------- 0 0.0 3.0 49 49
r 0.584095 0 1 cbr 500 ------- 0 0.0 3.0 48 48
+ 0.584095 1 2 cbr 500 ------- 0 0.0 3.0 48 48
- 0.584095 1 2 cbr 500 ------- 0 0.0 3.0 48 48
r 0.584857 1 2 cbr 500 ------- 0 0.0 3.0 47 47
+ 0.584857 2 3 cbr 500 ------- 0 0.0 3.0 47 47
- 0.584857 2 3 cbr 500 ------- 0 0.0 3.0 47 47
r 0.585619 2 3 cbr 500 ------- 0 0.0 3.0 46 46
+ 0.595238 0 1 cbr 500 ------- 0 0.0 3.0 50 50
- 0.595238 0 1 cbr 500 ------- 0 0.0 3.0 50 50
r 0.596 0 1 cbr 500 ------- 0 0.0 3.0 49 49
+ 0.596 1 2 cbr 500 ------- 0 0.0 3.0 49 49
- 0.596 1 2 cbr 500 ------- 0 0.0 3.0 49 49
r 0.596762 1 2 cbr 500 ------- 0 0.0 3.0 48 48
+ 0.596762 2 3 cbr 500 ------- 0 0.0 3.0 48 48
- 0.596762 2 3 cbr 500 ------- 0 0.0 3.0 48 48
r 0.597524 2 3 cbr 500 ------- 0 0.0 3.0 47 47
+ 0.607143 0 1 cbr 500 ------- 0 0.0 3.0 51 51
- 0.607143 0 1 cbr 500 ------- 0 0.0 3.0 51 51
r 0.607905 0 1 cbr 500 ------- 0 0.0 3.0 50 50
+ 0.607905 1 2 cbr 500 ------- 0 0.0 3.0 50 50
- 0.607905 1 2 cbr 500 ------- 0 0.0 3.0 50 50
r 0.608667 1 2 cbr 500 ------- 0 0.0 3.0 49 49
+ 0.608667 2 3 cbr 500 ------- 0 0.0 3.0 49 49
- 0.608667 2 3 cbr 500 ------- 0 0.0 3.0 49 49
r 0.609429 2 3 cbr 500 ------- 0 0.0 3.0 48 48
+ 0.619048 0 1 cbr 500 ------- 0 0.0 3.0 52 52
- 0.619048 0 1 cbr 500 ------- 0 0.0 3.0 52 52
r 0.61981 0 1 cbr 500 ------- 0 0.0 3.0 51 51
+ 0.61981 1 2 cbr 500 ------- 0 0.0 3.0 51 51
- 0.61981 1 2 cbr 500 ------- 0 0.0 3.0 51 51
r 0.620571 1 2 cbr 500 ------- 0 0.0 3.0 50 50
+ 0.620571 2 3 cbr 500 ------- 0 0.0 3.0 50 50
- 0.620571 2 3 cbr 500 ------- 0 0.0 3.0 50 50
r 0.621333 2 3 cbr 500 ------- 0 0.0 3.0 49 49
+ 0.630952 0 1 cbr 500 ------- 0 0.0 3.0 53 53
- 0.630952 0 1 cbr 500 ------- 0 0.0 3.0 53 53
r 0.631714 0 1 cbr 500 ------- 0 0.0 3.0 52 52
+ 0.631714 1 2 cbr 500 ------- 0 0.0 3.0 52 52
- 0.631714 1 2 cbr 500 ------- 0 0.0 3.0 52 52
r 0.632476 1 2 cbr 500 ------- 0 0.0 3.0 51 51
+ 0.632476 2 3 cbr 500 ------- 0 0.0 3.0 51 51
- 0.632476 2 3 cbr 500 ------- 0 0.0 3.0 51 51
r 0.633238 2 3 cbr 500 ------- 0 0.0 3.0 50 50
+ 0.642857 0 1 cbr 500 ------- 0 0.0 3.0 54 54
- 0.642857 0 1 cbr 500 ------- 0 0.0 3.0 54 54
r 0.643619 0 1 cbr 500 ------- 0 0.0 3.0 53 53
+ 0.643619 1 2 cbr 500 ------- 0 0.0 3.0 53 53
- 0.643619 1 2 cbr 500 ------- 0 0.0 3.0 53 53
r 0.644381 1 2 cbr 500 ------- 0 0.0 3.0 52 52
+ 0.644381 2 3 cbr 500 ------- 0 0.0 3.0 52 52
- 0.644381 2 3 cbr 500 ------- 0 0.0 3.0 52 52
r 0.645143 2 3 cbr 500 ------- 0 0.0 3.0 51 51
+ 0.654762 0 1 cbr 500 ------- 0 0.0 3.0 55 55
- 0.654762 0 1 cbr 500 ------- 0 0.0 3.0 55 55
r 0.655524 0 1 cbr 500 ------- 0 0.0 3.0 54 54
+ 0.655524 1 2 cbr 500 ------- 0 0.0 3.0 54 54
- 0.655524 1 2 cbr 500 ------- 0 0.0 3.0 54 54
r 0.656286 1 2 cbr 500 ------- 0 0.0 3.0 53 53
+ 0.656286 2 3 cbr 500 ------- 0 0.0 3.0 53 53
- 0.656286 2 3 cbr 500 ------- 0 0.0 3.0 53 53
r 0.657048 2 3 cbr 500 ------- 0 0.0 3.0 52 52
+ 0.666667 0 1 cbr 500 ------- 0 0.0 3.0 56 56
- 0.666667 0 1 cbr 500 ------- 0 0.0 3.0 56 56
r 0.667429 0 1 cbr 500 ------- 0 0.0 3.0 55 55
+ 0.667429 1 2 cbr 500 ------- 0 0.0 3.0 55 55
- 0.667429 1 2 cbr 500 ------- 0 0.0 3.0 55 55
r 0.66819 1 2 cbr 500 ------- 0 0.0 3.0 54 54
+ 0.66819 2 3 cbr 500 ------- 0 0.0 3.0 54 54
- 0.66819 2 3 cbr 500 ------- 0 0.0 3.0 54 54
r 0.668952 2 3 cbr 500 ------- 0 0.0 3.0 53 53
+ 0.678571 0 1 cbr 500 ------- 0 0.0 3.0 57 57
- 0.678571 0 1 cbr 500 ------- 0 0.0 3.0 57 57
r 0.679333 0 1 cbr 500 ------- 0 0.0 3.0 56 56
+ 0.679333 1 2 cbr 500 ------- 0 0.0 3.0 56 56
- 0.679333 1 2 cbr 500 ------- 0 0.0 3.0 56 56
r 0.680095 1 2 cbr 500 ------- 0 0.0 3.0 55 55
+ 0.680095 2 3 cbr 500 ------- 0 0.0 3.0 55 55
- 0.680095 2 3 cbr 500 ------- 0 0.0 3.0 55 55
r 0.680857 2 3 cbr 500 ------- 0 0.0 3.0 54 54
+ 0.690476 0 1 cbr 500 ------- 0 0.0 3.0 58 58
- 0.690476 0 1 cbr 500 ------- 0 0.0 3.0 58 58
r 0.691238 0 1 cbr 500 ------- 0 0.0 3.0 57 57
+ 0.691238 1 2 cbr 500 ------- 0 0.0 3.0 57 57
- 0.691238 1 2 cbr 500 ------- 0 0.0 3.0 57 57
r 0.692 1 2 cbr 500 ------- 0 0.0 3.0 56 56
+ 0.692 2 3 cbr 500 ------- 0 0.0 3.0 56 56
- 0.692 2 3 cbr 500 ------- 0 0.0 3.0 56 56
r 0.692762 2 3 cbr 500 ------- 0 0.0 3.0 55 55
+ 0.702381 0 1 cbr 500 ------- 0 0.0 3.0 59 59
- 0.702381 0 1 cbr 500 ------- 0 0.0 3.0 59 59
r 0.703143 0 1 cbr 500 ------- 0 0.0 3.0 58 58
+ 0.703143 1 2 cbr 500 ------- 0 0.0 3.0 58 58
- 0.703143 1 2 cbr 500 ------- 0 0.0 3.0 58 58
r 0.703905 1 2 cbr 500 ------- 0 0.0 3.0 57 57
+ 0.703905 2 3 cbr 500 ------- 0 0.0 3.0 57 57
- 0.703905 2 3 cbr 500 ------- 0 0.0 3.0 57 57
r 0.704667 2 3 cbr 500 ------- 0 0.0 3.0 56 56
+ 0.714286 0 1 cbr 500 ------- 0 0.0 3.0 60 60
- 0.714286 0 1 cbr 500 ------- 0 0.0 3.0 60 60
r 0.715048 0 1 cbr 500 ------- 0 0.0 3.0 59 59
+ 0.715048 1 2 cbr 500 ------- 0 0.0 3.0 59 59
- 0.715048 1 2 cbr 500 ------- 0 0.0 3.0 59 59
r 0.71581 1 2 cbr 500 ------- 0 0.0 3.0 58 58
+ 0.71581 2 3 cbr 500 ------- 0 0.0 3.0 58 58
- 0.71581 2 3 cbr 500 ------- 0 0.0 3.0 58 58
r 0.716571 2 3 cbr 500 ------- 0 0.0 3.0 57 57
+ 0.72619 0 1 cbr 500 ------- 0 0.0 3.0 61 61
- 0.72619 0 1 cbr 500 ------- 0 0.0 3.0 61 61
r 0.726952 0 1 cbr 500 ------- 0 0.0 3.0 60 60
+ 0.726952 1 2 cbr 500 ------- 0 0.0 3.0 60 60
- 0.726952 1 2 cbr 500 ------- 0 0.0 3.0 60 60
r 0.727714 1 2 cbr 500 ------- 0 0.0 3.0 59 59
+ 0.727714 2 3 cbr 500 ------- 0 0.0 3.0 59 59
- 0.727714 2 3 cbr 500 ------- 0 0.0 3.0 59 59
r 0.728476 2 3 cbr 500 ------- 0 0.0 3.0 58 58
+ 0.738095 0 1 cbr 500 ------- 0 0.0 3.0 62 62
- 0.738095 0 1 cbr 500 ------- 0 0.0 3.0 62 62
r 0.738857 0 1 cbr 500 ------- 0 0.0 3.0 61 61
+ 0.738857 1 2 cbr 500 ------- 0 0.0 3.0 61 61
- 0.738857 1 2 cbr 500 ------- 0 0.0 3.0 61 61
r 0.739619 1 2 cbr 500 ------- 0 0.0 3.0 60 60
+ 0.739619 2 3 cbr 500 ------- 0 0.0 3.0 60 60
- 0.739619 2 3 cbr 500 ------- 0 0.0 3.0 60 60
r 0.740381 2 3 cbr 500 ------- 0 0.0 3.0 59 59
+ 0.75 0 1 cbr 500 ------- 0 0.0 3.0 63 63
- 0.75 0 1 cbr 500 ------- 0 0.0 3.0 63 63
r 0.750762 0 1 cbr 500 ------- 0 0.0 3.0 62 62
+ 0.750762 1 2 cbr 500 ------- 0 0.0 3.0 62 62
- 0.750762 1 2 cbr 500 ------- 0 0.0 3.0 62 62
r 0.751524 1 2 cbr 500 ------- 0 0.0 3.0 61 61
+ 0.751524 2 3 cbr 500 ------- 0 0.0 3.0 61 61
- 0.751524 2 3 cbr 500 ------- 0 0.0 3.0 61 61
r 0.752286 2 3 cbr 500 ------- 0 0.0 3.0 60 60
+ 0.761905 0 1 cbr 500 ------- 0 0.0 3.0 64 64
- 0.761905 0 1 cbr 500 ------- 0 0.0 3.0 64 64
r 0.762667 0 1 cbr 500 ------- 0 0.0 3.0 63 63
+ 0.762667 1 2 cbr 500 ------- 0 0.0 3.0 63 63
- 0.762667 1 2 cbr 500 ------- 0 0.0 3.0 63 63
r 0.763429 1 2 cbr 500 ------- 0 0.0 3.0 62 62
+ 0.763429 2 3 cbr 500 ------- 0 0.0 3.0 62 62
- 0.763429 2 3 cbr 500 ------- 0 0.0 3.0 62 62
r 0.76419 2 3 cbr 500 ------- 0 0.0 3.0 61 61
+ 0.77381 0 1 cbr 500 ------- 0 0.0 3.0 65 65
- 0.77381 0 1 cbr 500 ------- 0 0.0 3.0 65 65
r 0.774571 0 1 cbr 500 ------- 0 0.0 3.0 64 64
+ 0.774571 1 2 cbr 500 ------- 0 0.0 3.0 64 64
- 0.774571 1 2 cbr 500 ------- 0 0.0 3.0 64 64
r 0.775333 1 2 cbr 500 ------- 0 0.0 3.0 63 63
+ 0.775333 2 3 cbr 500 ------- 0 0.0 3.0 63 63
- 0.775333 2 3 cbr 500 ------- 0 0.0 3.0 63 63
r 0.776095 2 3 cbr 500 ------- 0 0.0 3.0 62 62
+ 0.785714 0 1 cbr 500 ------- 0 0.0 3.0 66 66
- 0.785714 0 1 cbr 500 ------- 0 0.0 3.0 66 66
r 0.786476 0 1 cbr 500 ------- 0 0.0 3.0 65 65
+ 0.786476 1 2 cbr 500 ------- 0 0.0 3.0 65 65
- 0.786476 1 2 cbr 500 ------- 0 0.0 3.0 65 65
r 0.787238 1 2 cbr 500 ------- 0 0.0 3.0 64 64
+ 0.787238 2 3 cbr 500 ------- 0 0.0 3.0 64 64
- 0.787238 2 3 cbr 500 ------- 0 0.0 3.0 64 64
r 0.788 2 3 cbr 500 ------- 0 0.0 3.0 63 63
+ 0.797619 0 1 cbr 500 ------- 0 0.0 3.0 67 67
- 0.797619 0 1 cbr 500 ------- 0 0.0 3.0 67 67
r 0.798381 0 1 cbr 500 ------- 0 0.0 3.0 66 66
+ 0.798381 1 2 cbr 500 ------- 0 0.0 3.0 66 66
- 0.798381 1 2 cbr 500 ------- 0 0.0 3.0 66 66
r 0.799143 1 2 cbr 500 ------- 0 0.0 3.0 65 65
+ 0.799143 2 3 cbr 500 ------- 0 0.0 3.0 65 65
- 0.799143 2 3 cbr 500 ------- 0 0.0 3.0 65 65
r 0.799905 2 3 cbr 500 ------- 0 0.0 3.0 64 64
+ 0.809524 0 1 cbr 500 ------- 0 0.0 3.0 68 68
- 0.809524 0 1 cbr 500 ------- 0 0.0 3.0 68 68
r 0.810286 0 1 cbr 500 ------- 0 0.0 3.0 67 67
+ 0.810286 1 2 cbr 500 ------- 0 0.0 3.0 67 67
- 0.810286 1 2 cbr 500 ------- 0 0.0 3.0 67 67
r 0.811048 1 2 cbr 500 ------- 0 0.0 3.0 66 66
+ 0.811048 2 3 cbr 500 ------- 0 0.0 3.0 66 66
- 0.811048 2 3 cbr 500 ------- 0 0.0 3.0 66 66
r 0.81181 2 3 cbr 500 ------- 0 0.0 3.0 65 65
+ 0.821429 0 1 cbr 500 ------- 0 0.0 3.0 69 69
- 0.821429 0 1 cbr 500 ------- 0 0.0 3.0 69 69
r 0.82219 0 1 cbr 500 ------- 0 0.0 3.0 68 68
+ 0.82219 1 2 cbr 500 ------- 0 0.0 3.0 68 68
- 0.82219 1 2 cbr 500 ------- 0 0.0 3.0 68 68
r 0.822952 1 2 cbr 500 ------- 0 0.0 3.0 67 67
+ 0.822952 2 3 cbr 500 ------- 0 0.0 3.0 67 67
- 0.822952 2 3 cbr 500 ------- 0 0.0 3.0 67 67
r 0.823714 2 3 cbr 500 ------- 0 0.0 3.0 66 66
+ 0.833333 0 1 cbr 500 ------- 0 0.0 3.0 70 70
- 0.833333 0 1 cbr 500 ------- 0 0.0 3.0 70 70
r 0.834095 0 1 cbr 500 ------- 0 0.0 3.0 69 69
+ 0.834095 1 2 cbr 500 ------- 0 0.0 3.0 69 69
- 0.834095 1 2 cbr 500 ------- 0 0.0 3.0 69 69
r 0.834857 1 2 cbr 500 ------- 0 0.0 3.0 68 68
+ 0.834857 2 3 cbr 500 ------- 0 0.0 3.0 68 68
- 0.834857 2 3 cbr 500 ------- 0 0.0 3.0 68 68
r 0.835619 2 3 cbr 500 ------- 0 0.0 3.0 67 67
+ 0.845238 0 1 cbr 500 ------- 0 0.0 3.0 71 71
- 0.845238 0 1 cbr 500 ------- 0 0.0 3.0 71 71
r 0.846 0 1 cbr 500 ------- 0 0.0 3.0 70 70
+ 0.846 1 2 cbr 500 ------- 0 0.0 3.0 70 70
- 0.846 1 2 cbr 500 ------- 0 0.0 3.0 70 70
r 0.846762 1 2 cbr 500 ------- 0 0.0 3.0 69 69
+ 0.846762 2 3 cbr 500 ------- 0 0.0 3.0 69 69
- 0.846762 2 3 cbr 500 ------- 0 0.0 3.0 69 69
r 0.847524 2 3 cbr 500 ------- 0 0.0 3.0 68 68
+ 0.857143 0 1 cbr 500 ------- 0 0.0 3.0 72 72
- 0.857143 0 1 cbr 500 ------- 0 0.0 3.0 72 72
r 0.857905 0 1 cbr 500 ------- 0 0.0 3.0 71 71
+ 0.857905 1 2 cbr 500 ------- 0 0.0 3.0 71 71
- 0.857905 1 2 cbr 500 ------- 0 0.0 3.0 71 71
r 0.858667 1 2 cbr 500 ------- 0 0.0 3.0 70 70
+ 0.858667 2 3 cbr 500 ------- 0 0.0 3.0 70 70
- 0.858667 2 3 cbr 500 ------- 0 0.0 3.0 70 70
r 0.859429 2 3 cbr 500 ------- 0 0.0 3.0 69 69